5
	Energy:       0.6503126
H         -6.79908        0.35978        0.00000
H         -8.19164        0.74779       -0.90502
H         -8.19164        0.94954        0.78854
H         -8.19164       -0.61799        0.11648
N         -7.84350        0.35978       -0.00000
