2
Properties=species:S:1:pos:R:3:forces:R:3 Lattice="2.0 0.0 0.0 0.0 2.0 0.0 0.0 0.0 2.0" energy=-210.34143869968557
H 1.7469600972641757 1.3105406236661603 1.8078885055514737 -0.05515010202844178 -0.016138638841873887 -0.07494808520830193
Li 1.3428892907885033 0.34725373984758257 1.1993919048712993 0.05608062426846 0.019533274244299792 0.07536758225127621
2
Properties=species:S:1:pos:R:3:forces:R:3 Lattice="2.0 0.0 0.0 0.0 2.0 0.0 0.0 0.0 2.0" energy=-208.1561426455114
H 0.5421120831942108 1.123751314386705 1.850047836343 0.28176960731737 -0.04513199169175898 0.25950818032265166
Li 1.228635938071446 1.032454202454703 0.3783686165462776 -0.28071508108709975 0.045080998695914434 -0.26245776947660476
2
Properties=species:S:1:pos:R:3:forces:R:3 Lattice="2.0 0.0 0.0 0.0 2.0 0.0 0.0 0.0 2.0" energy=-210.09645903521653
H 0.027158196041101146 1.6731862097711294 1.6134366515700422 0.10292634370603265 0.1275333232368676 0.04737263331395791
Li 0.7941335004585335 0.3699666635090202 1.8523215817301748 -0.10497046544138594 -0.12381993344976971 -0.04826856097448054
2
Properties=species:S:1:pos:R:3:forces:R:3 Lattice="2.0 0.0 0.0 0.0 2.0 0.0 0.0 0.0 2.0" energy=-205.90144564737625
H 1.8388327791612642 0.9993481253471506 0.4385729436404704 -0.22101994991201718 -0.16858417104422457 0.34610561623965597
Li 1.4674006284615426 0.6984981715831435 1.1253342276681788 0.22287617184884612 0.17892796089444607 -0.34832478273018663
2
Properties=species:S:1:pos:R:3:forces:R:3 Lattice="2.0 0.0 0.0 0.0 2.0 0.0 0.0 0.0 2.0" energy=-210.78178622831706
H 1.0168310046613556 0.8612585238423034 0.0009601399098819741 -0.04918730902954849 -0.0494842923887146 -0.002704796073556892
Li 0.44419313332873056 0.2832776533608796 0.9973760638707188 0.05166094970816282 0.05193243921592955 -0.0008919259574161065
2
Properties=species:S:1:pos:R:3:forces:R:3 Lattice="2.0 0.0 0.0 0.0 2.0 0.0 0.0 0.0 2.0" energy=-204.93288634154862
H 1.6369978211256002 0.3135443027001339 0.17708217034721807 0.286981721245257 0.5591418497105554 -0.3393644337261212
Li 1.9117219165709483 0.8863594602481111 1.8673689857714335 -0.2855514427745901 -0.5622380627972693 0.33926335540009644
2
Properties=species:S:1:pos:R:3:forces:R:3 Lattice="2.0 0.0 0.0 0.0 2.0 0.0 0.0 0.0 2.0" energy=-210.73524383643314
H 1.7700764233531123 0.7893408914492881 1.088955393401397 -0.048281281265649345 0.05406751470004684 0.0033540969189816416
Li 1.2528169082220253 1.403038973917562 0.09006815480692909 0.05071086876279346 -0.05608528360044185 0.00022152166059696832
2
Properties=species:S:1:pos:R:3:forces:R:3 Lattice="2.0 0.0 0.0 0.0 2.0 0.0 0.0 0.0 2.0" energy=-210.7055029075143
H 1.6106685007271484 1.0136065810407606 1.3399205019703946 0.07442600324468429 -0.0551332730156715 0.06893938171309927
Li 0.22790861256500783 0.45451125078373633 0.13344906283841884 -0.07884652763782285 0.05491810155697552 -0.07288355009254194
2
Properties=species:S:1:pos:R:3:forces:R:3 Lattice="2.0 0.0 0.0 0.0 2.0 0.0 0.0 0.0 2.0" energy=-211.46640045705647
H 1.8871080860691987 0.8752458196713906 0.6103866813399352 0.027083053922416 0.0061748501139223255 0.0009190170012606802
Li 0.7841608913523739 0.008999028007995014 1.3435906437324703 -0.022815401313884376 0.0020283655074712637 -0.009497866107779085
2
Properties=species:S:1:pos:R:3:forces:R:3 Lattice="2.0 0.0 0.0 0.0 2.0 0.0 0.0 0.0 2.0" energy=-208.31080335905835
H 0.751218546267328 1.8293859346784571 0.8411942880456913 0.10733713518674659 -0.1813798156351406 -0.18119888599741052
Li 1.1181411223414048 1.2045494112405455 0.21726908998803207 -0.11639787090312986 0.18193530292844318 0.18178408033215054
2
Properties=species:S:1:pos:R:3:forces:R:3 Lattice="2.0 0.0 0.0 0.0 2.0 0.0 0.0 0.0 2.0" energy=-209.77427812121766
H 1.5755046749473112 1.4508766716642294 0.9255583812921313 -0.10274734710384964 -0.032219684225297446 0.04469996473204668
Li 0.9410022181884197 1.288271197130342 1.8422141803657355 0.10418706186491483 0.03395014705076274 -0.04775642087221893
2
Properties=species:S:1:pos:R:3:forces:R:3 Lattice="2.0 0.0 0.0 0.0 2.0 0.0 0.0 0.0 2.0" energy=-207.4907749598616
H 1.9765799421188173 0.2949641306899158 0.6665239835320342 0.11701323176693335 0.2640164206981671 0.12532456152730848
Li 0.14861512557309342 1.1299792755768918 0.8832177768619527 -0.1289002629261331 -0.267848137090989 -0.1230727462782803
2
Properties=species:S:1:pos:R:3:forces:R:3 Lattice="2.0 0.0 0.0 0.0 2.0 0.0 0.0 0.0 2.0" energy=-203.76022483437532
H 1.7832481213684168 1.1384329182262618 0.028729360472953713 0.013126503911447061 -0.5845541870211601 -0.6338906563014737
Li 1.7925113387749048 0.6991376801580882 1.537288146053771 -0.012355239328728135 0.5808077238808345 0.6409913147853306
2
Properties=species:S:1:pos:R:3:forces:R:3 Lattice="2.0 0.0 0.0 0.0 2.0 0.0 0.0 0.0 2.0" energy=-209.62779094440157
H 0.7610588112475634 0.24461924434332794 1.634205810533692 -0.11273891948004727 -0.11632670596923639 0.13849374657889763
Li 0.37212249222327 1.880627601969749 0.48462734990577383 0.10772952373292766 0.12424046313712078 -0.13527630474529206
2
Properties=species:S:1:pos:R:3:forces:R:3 Lattice="2.0 0.0 0.0 0.0 2.0 0.0 0.0 0.0 2.0" energy=-210.47076717382572
H 0.2273823110242048 0.5559492502404069 1.637836758506292 -0.0851517715922081 -0.11531125765937161 -0.01426116804189391
Li 1.3591633348032384 1.8662612430851568 1.5317806392640836 0.07879869554202434 0.11175371638784337 0.01872839925449693
2
Properties=species:S:1:pos:R:3:forces:R:3 Lattice="2.0 0.0 0.0 0.0 2.0 0.0 0.0 0.0 2.0" energy=-210.33446908697192
H 0.5169590753697664 0.7416018162127209 0.28258963145894955 -0.042598862667708126 0.06979988236433743 0.038964187468775446
Li 0.17483139755064836 1.4429162784323317 1.1675869685949671 0.04469666886338697 -0.07150518510612097 -0.038671505395925954
2
Properties=species:S:1:pos:R:3:forces:R:3 Lattice="2.0 0.0 0.0 0.0 2.0 0.0 0.0 0.0 2.0" energy=-205.11099128069407
H 1.546344760224777 0.4602754563883884 1.833051407765566 -0.1596347733516269 0.4722982331388814 0.527863271499883
Li 1.4006076540247496 0.912105388620791 0.35829211172807973 0.15562273655359407 -0.4679436737919508 -0.5314842153952676
2
Properties=species:S:1:pos:R:3:forces:R:3 Lattice="2.0 0.0 0.0 0.0 2.0 0.0 0.0 0.0 2.0" energy=-210.19627671692353
H 1.2488266976231195 1.781675227044553 0.048209683160555405 0.07225356081485984 0.06302750536400226 0.009499287041346172
Li 1.851533708686724 0.13039164075443477 1.0248588282589302 -0.07332310988078239 -0.07104735860181444 -0.0090847059079322
2
Properties=species:S:1:pos:R:3:forces:R:3 Lattice="2.0 0.0 0.0 0.0 2.0 0.0 0.0 0.0 2.0" energy=-208.22815198343892
H 0.6660709328369625 0.6111848187354765 1.8993235598624758 -0.20092080259819828 0.24603601627548255 0.1135129361662014
Li 0.15484187038923536 1.3163448968315028 0.13380429858981313 0.20255665461548672 -0.24846209057675384 -0.1255900417451442
2
Properties=species:S:1:pos:R:3:forces:R:3 Lattice="2.0 0.0 0.0 0.0 2.0 0.0 0.0 0.0 2.0" energy=-207.58115625484743
H 0.33520134576418403 0.6498328960624737 1.97595666775638 0.2683683904298222 -0.4231543730218725 0.04005770247610885
Li 0.7090217441607694 1.9479248003510565 0.010424693549549335 -0.2756287029445859 0.4229944309513502 -0.05541006305092011
2
Properties=species:S:1:pos:R:3:forces:R:3 Lattice="2.0 0.0 0.0 0.0 2.0 0.0 0.0 0.0 2.0" energy=-205.68766305590884
H 0.6991987735247565 1.6037349788530562 1.2208702649325034 0.19473006228560652 -0.09445176695463661 0.3550448721773445
Li 1.0041615376028266 1.4550517768499116 1.9892517660494589 -0.20079496138786623 0.10046342012006015 -0.35492625682796397
2
Properties=species:S:1:pos:R:3:forces:R:3 Lattice="2.0 0.0 0.0 0.0 2.0 0.0 0.0 0.0 2.0" energy=-146.8630693271275
H 0.3103491102517437 1.241938223056992 1.072729408425892 -7.916938547982216 1.145367280941611 -0.0568068823103567
Li 0.04834006988435835 1.2796657700568523 1.0708485433222104 7.907393602296153 -1.1585550666420672 0.057028535670367544
2
Properties=species:S:1:pos:R:3:forces:R:3 Lattice="2.0 0.0 0.0 0.0 2.0 0.0 0.0 0.0 2.0" energy=-210.84937993911183
H 0.9826396567525186 0.3956944942235976 1.0293187007718965 0.007737459785600753 0.045633173694166806 0.03540358077018818
Li 1.950682311583713 1.1321473282639127 1.4603857837198702 -0.010309551820136265 -0.048826449253047466 -0.03892603032439568
2
Properties=species:S:1:pos:R:3:forces:R:3 Lattice="2.0 0.0 0.0 0.0 2.0 0.0 0.0 0.0 2.0" energy=-208.41393938607132
H 1.611810633906867 0.2519884930657792 0.5134967256789191 -0.2445149123942688 -0.21597810131521233 0.08123472099401788
Li 0.8652482863697526 1.7880942947688458 0.702790881590545 0.24401220796303003 0.21973869068084012 -0.08287445706085114
2
Properties=species:S:1:pos:R:3:forces:R:3 Lattice="2.0 0.0 0.0 0.0 2.0 0.0 0.0 0.0 2.0" energy=-211.48912509225772
H 0.48757626410196586 0.5611662537358879 1.9635928646173995 -0.026789830059731734 -0.0047521346621653415 0.0056915641190005695
Li 1.5920828553293533 1.3695590558128652 1.1381109198893085 0.022390216998396273 -0.004036860331450565 0.0030402851052320212
2
Properties=species:S:1:pos:R:3:forces:R:3 Lattice="2.0 0.0 0.0 0.0 2.0 0.0 0.0 0.0 2.0" energy=-205.402618904674
H 0.08705706944387637 1.9541357163145763 0.8148046208845077 0.15374240109363915 -0.006771054467366847 0.3549970889851254
Li 0.30894099679302744 1.9446523651335261 1.624224289234903 -0.1622405655933489 0.0072524370011842025 -0.35418239662966344
2
Properties=species:S:1:pos:R:3:forces:R:3 Lattice="2.0 0.0 0.0 0.0 2.0 0.0 0.0 0.0 2.0" energy=-210.88050011212317
H 0.6091167182824828 1.3611434989785527 0.6970211853178458 -0.04963684608722568 0.05023404972749873 -0.048415546988366864
Li 1.7251811564142063 0.018189163332650304 1.9703843514414876 0.033865825316945375 -0.04403280355970984 0.042636819619115474
2
Properties=species:S:1:pos:R:3:forces:R:3 Lattice="2.0 0.0 0.0 0.0 2.0 0.0 0.0 0.0 2.0" energy=-210.77144264277774
H 0.8932071011537388 1.2981984032516969 1.6939764959608663 0.037269032997885254 0.03772618762294472 0.08358864533807586
Li 1.238075593194045 0.23854138005793213 0.38774468705418297 -0.04032171198505258 -0.03142958780248023 -0.08121544250454099
2
Properties=species:S:1:pos:R:3:forces:R:3 Lattice="2.0 0.0 0.0 0.0 2.0 0.0 0.0 0.0 2.0" energy=-209.52240451811292
H 1.2081248409776497 1.8763329475126198 0.5245989961237525 0.13308330732558543 0.1357256725127428 0.1208069585595496
Li 1.978741352030817 0.2887620867141434 1.0321698160632717 -0.13148742364419697 -0.12080999689923766 -0.12237640597062588
2
Properties=species:S:1:pos:R:3:forces:R:3 Lattice="2.0 0.0 0.0 0.0 2.0 0.0 0.0 0.0 2.0" energy=-207.07992135496852
H 1.4313121083301743 0.167230811955142 1.0654810569217192 0.3845911913724531 0.12699191634917872 -0.20234159781489036
Li 0.18026189432537443 0.36509977389329573 0.784417332212211 -0.3808170960555125 -0.1276519344086368 0.19244070839148275
2
Properties=species:S:1:pos:R:3:forces:R:3 Lattice="2.0 0.0 0.0 0.0 2.0 0.0 0.0 0.0 2.0" energy=-209.42471109764404
H 0.2863550557467962 0.5403983677631059 1.2091050222686635 -0.17938746758451524 -0.13594357769769283 -0.1518444643231518
Li 1.7013527171404086 0.037827601853055004 0.6271570433726206 0.17688963920673656 0.13595493733515807 0.15079472377258263
2
Properties=species:S:1:pos:R:3:forces:R:3 Lattice="2.0 0.0 0.0 0.0 2.0 0.0 0.0 0.0 2.0" energy=-210.8464400606922
H 1.115631077279221 0.6107122764944715 0.11832655553829352 -0.020643087175397368 0.025543691133341373 -0.044400612691328445
Li 0.9154628943603618 1.4920148173736698 1.24246582256913 0.02194696422856776 -0.03306740536831865 0.040629256614064024
2
Properties=species:S:1:pos:R:3:forces:R:3 Lattice="2.0 0.0 0.0 0.0 2.0 0.0 0.0 0.0 2.0" energy=-210.65409362767662
H 1.958764583801193 1.618254016886918 1.67088147423364 0.04710863957682776 -0.03441263562899041 0.09457839337754242
Li 0.8890679925379519 1.3501094012154145 0.356523142900558 -0.04007135838707443 0.03718283478467768 -0.09125227887537685
2
Properties=species:S:1:pos:R:3:forces:R:3 Lattice="2.0 0.0 0.0 0.0 2.0 0.0 0.0 0.0 2.0" energy=-198.27023740453092
H 1.2841025399739825 1.0560738997199883 0.4076419004771905 -0.6622270842275676 -0.6621719165769338 0.29120726196817465
Li 0.862900092659493 0.6349124368264709 0.5833565026928345 0.6623678945012492 0.6623120120756423 -0.2882727137301109
2
Properties=species:S:1:pos:R:3:forces:R:3 Lattice="2.0 0.0 0.0 0.0 2.0 0.0 0.0 0.0 2.0" energy=-210.62932122368318
H 1.9990647323447277 0.953558635929386 0.7911340788025603 -0.05594055535694503 -0.057208550417013004 -0.05611647378515233
Li 1.3290457311009285 0.2507507741141308 0.11711990229764058 0.059840751513080936 0.06045633930206612 0.05994014971060668
2
Properties=species:S:1:pos:R:3:forces:R:3 Lattice="2.0 0.0 0.0 0.0 2.0 0.0 0.0 0.0 2.0" energy=-211.11569239713003
H 0.3293052666603564 0.6745606943807767 1.8083121053115703 0.020429525340863397 -0.02662672320307269 0.005988971418682931
Li 0.6514315935216397 1.7481427802214673 0.8452546116538187 -0.02444469103096769 0.023429251001441775 0.0019257157545129466
2
Properties=species:S:1:pos:R:3:forces:R:3 Lattice="2.0 0.0 0.0 0.0 2.0 0.0 0.0 0.0 2.0" energy=-207.53626571234986
H 0.8566887767663101 0.514330032046471 0.9820183385163381 -0.23398535394816644 0.194856087268374 0.07061133642254105
Li 0.10276067711712411 1.0092298537393227 1.167843352890332 0.233035325671203 -0.19619665016142407 -0.07817745982712898
2
Properties=species:S:1:pos:R:3:forces:R:3 Lattice="2.0 0.0 0.0 0.0 2.0 0.0 0.0 0.0 2.0" energy=-206.9335273563688
H 0.9365375039915607 1.070921326767058 1.066203800139247 0.2107657636447698 -0.10299811558112562 0.2770384753981818
Li 1.3880639850834262 0.836584073664475 1.791586511019425 -0.21262545187531945 0.11296453822579205 -0.27676809894460996
