2
Properties=species:S:1:pos:R:3:forces:R:3 Lattice="2.0 0.0 0.0 0.0 2.0 0.0 0.0 0.0 2.0" energy=-209.42471109764404
H 0.2863550557467962 0.5403983677631059 1.2091050222686635 -0.17938746758451524 -0.13594357769769283 -0.1518444643231518
Li 1.7013527171404086 0.037827601853055004 0.6271570433726206 0.17688963920673656 0.13595493733515807 0.15079472377258263
2
Properties=species:S:1:pos:R:3:forces:R:3 Lattice="2.0 0.0 0.0 0.0 2.0 0.0 0.0 0.0 2.0" energy=-210.8464400606922
H 1.115631077279221 0.6107122764944715 0.11832655553829352 -0.020643087175397368 0.025543691133341373 -0.044400612691328445
Li 0.9154628943603618 1.4920148173736698 1.24246582256913 0.02194696422856776 -0.03306740536831865 0.040629256614064024
2
Properties=species:S:1:pos:R:3:forces:R:3 Lattice="2.0 0.0 0.0 0.0 2.0 0.0 0.0 0.0 2.0" energy=-210.65409362767662
H 1.958764583801193 1.618254016886918 1.67088147423364 0.04710863957682776 -0.03441263562899041 0.09457839337754242
Li 0.8890679925379519 1.3501094012154145 0.356523142900558 -0.04007135838707443 0.03718283478467768 -0.09125227887537685
2
Properties=species:S:1:pos:R:3:forces:R:3 Lattice="2.0 0.0 0.0 0.0 2.0 0.0 0.0 0.0 2.0" energy=-198.27023740453092
H 1.2841025399739825 1.0560738997199883 0.4076419004771905 -0.6622270842275676 -0.6621719165769338 0.29120726196817465
Li 0.862900092659493 0.6349124368264709 0.5833565026928345 0.6623678945012492 0.6623120120756423 -0.2882727137301109
2
Properties=species:S:1:pos:R:3:forces:R:3 Lattice="2.0 0.0 0.0 0.0 2.0 0.0 0.0 0.0 2.0" energy=-210.62932122368318
H 1.9990647323447277 0.953558635929386 0.7911340788025603 -0.05594055535694503 -0.057208550417013004 -0.05611647378515233
Li 1.3290457311009285 0.2507507741141308 0.11711990229764058 0.059840751513080936 0.06045633930206612 0.05994014971060668
2
Properties=species:S:1:pos:R:3:forces:R:3 Lattice="2.0 0.0 0.0 0.0 2.0 0.0 0.0 0.0 2.0" energy=-211.11569239713003
H 0.3293052666603564 0.6745606943807767 1.8083121053115703 0.020429525340863397 -0.02662672320307269 0.005988971418682931
Li 0.6514315935216397 1.7481427802214673 0.8452546116538187 -0.02444469103096769 0.023429251001441775 0.0019257157545129466
2
Properties=species:S:1:pos:R:3:forces:R:3 Lattice="2.0 0.0 0.0 0.0 2.0 0.0 0.0 0.0 2.0" energy=-207.53626571234986
H 0.8566887767663101 0.514330032046471 0.9820183385163381 -0.23398535394816644 0.194856087268374 0.07061133642254105
Li 0.10276067711712411 1.0092298537393227 1.167843352890332 0.233035325671203 -0.19619665016142407 -0.07817745982712898
2
Properties=species:S:1:pos:R:3:forces:R:3 Lattice="2.0 0.0 0.0 0.0 2.0 0.0 0.0 0.0 2.0" energy=-206.9335273563688
H 0.9365375039915607 1.070921326767058 1.066203800139247 0.2107657636447698 -0.10299811558112562 0.2770384753981818
Li 1.3880639850834262 0.836584073664475 1.791586511019425 -0.21262545187531945 0.11296453822579205 -0.27676809894460996
