2
Properties=species:S:1:pos:R:3:forces:R:3 Lattice="2.0 0.0 0.0 0.0 2.0 0.0 0.0 0.0 2.0" energy=-210.34143869968557
H 1.7469600972641757 1.3105406236661603 1.8078885055514737 -0.05515010202844178 -0.016138638841873887 -0.07494808520830193
Li 1.3428892907885033 0.34725373984758257 1.1993919048712993 0.05608062426846 0.019533274244299792 0.07536758225127621
2
Properties=species:S:1:pos:R:3:forces:R:3 Lattice="2.0 0.0 0.0 0.0 2.0 0.0 0.0 0.0 2.0" energy=-208.1561426455114
H 0.5421120831942108 1.123751314386705 1.850047836343 0.28176960731737 -0.04513199169175898 0.25950818032265166
Li 1.228635938071446 1.032454202454703 0.3783686165462776 -0.28071508108709975 0.045080998695914434 -0.26245776947660476
2
Properties=species:S:1:pos:R:3:forces:R:3 Lattice="2.0 0.0 0.0 0.0 2.0 0.0 0.0 0.0 2.0" energy=-210.09645903521653
H 0.027158196041101146 1.6731862097711294 1.6134366515700422 0.10292634370603265 0.1275333232368676 0.04737263331395791
Li 0.7941335004585335 0.3699666635090202 1.8523215817301748 -0.10497046544138594 -0.12381993344976971 -0.04826856097448054
2
Properties=species:S:1:pos:R:3:forces:R:3 Lattice="2.0 0.0 0.0 0.0 2.0 0.0 0.0 0.0 2.0" energy=-205.90144564737625
H 1.8388327791612642 0.9993481253471506 0.4385729436404704 -0.22101994991201718 -0.16858417104422457 0.34610561623965597
Li 1.4674006284615426 0.6984981715831435 1.1253342276681788 0.22287617184884612 0.17892796089444607 -0.34832478273018663
2
Properties=species:S:1:pos:R:3:forces:R:3 Lattice="2.0 0.0 0.0 0.0 2.0 0.0 0.0 0.0 2.0" energy=-210.78178622831706
H 1.0168310046613556 0.8612585238423034 0.0009601399098819741 -0.04918730902954849 -0.0494842923887146 -0.002704796073556892
Li 0.44419313332873056 0.2832776533608796 0.9973760638707188 0.05166094970816282 0.05193243921592955 -0.0008919259574161065
2
Properties=species:S:1:pos:R:3:forces:R:3 Lattice="2.0 0.0 0.0 0.0 2.0 0.0 0.0 0.0 2.0" energy=-204.93288634154862
H 1.6369978211256002 0.3135443027001339 0.17708217034721807 0.286981721245257 0.5591418497105554 -0.3393644337261212
Li 1.9117219165709483 0.8863594602481111 1.8673689857714335 -0.2855514427745901 -0.5622380627972693 0.33926335540009644
2
Properties=species:S:1:pos:R:3:forces:R:3 Lattice="2.0 0.0 0.0 0.0 2.0 0.0 0.0 0.0 2.0" energy=-210.73524383643314
H 1.7700764233531123 0.7893408914492881 1.088955393401397 -0.048281281265649345 0.05406751470004684 0.0033540969189816416
Li 1.2528169082220253 1.403038973917562 0.09006815480692909 0.05071086876279346 -0.05608528360044185 0.00022152166059696832
2
Properties=species:S:1:pos:R:3:forces:R:3 Lattice="2.0 0.0 0.0 0.0 2.0 0.0 0.0 0.0 2.0" energy=-210.7055029075143
H 1.6106685007271484 1.0136065810407606 1.3399205019703946 0.07442600324468429 -0.0551332730156715 0.06893938171309927
Li 0.22790861256500783 0.45451125078373633 0.13344906283841884 -0.07884652763782285 0.05491810155697552 -0.07288355009254194
2
Properties=species:S:1:pos:R:3:forces:R:3 Lattice="2.0 0.0 0.0 0.0 2.0 0.0 0.0 0.0 2.0" energy=-211.46640045705647
H 1.8871080860691987 0.8752458196713906 0.6103866813399352 0.027083053922416 0.0061748501139223255 0.0009190170012606802
Li 0.7841608913523739 0.008999028007995014 1.3435906437324703 -0.022815401313884376 0.0020283655074712637 -0.009497866107779085
2
Properties=species:S:1:pos:R:3:forces:R:3 Lattice="2.0 0.0 0.0 0.0 2.0 0.0 0.0 0.0 2.0" energy=-208.31080335905835
H 0.751218546267328 1.8293859346784571 0.8411942880456913 0.10733713518674659 -0.1813798156351406 -0.18119888599741052
Li 1.1181411223414048 1.2045494112405455 0.21726908998803207 -0.11639787090312986 0.18193530292844318 0.18178408033215054
